-0.045 	2.20588e-07
-0.035 	4.2542e-07
-0.025 	3.93907e-07
-0.015 	3.62395e-07
-0.005 	3.30882e-07
0.005 	2.9937e-07
0.015 	2.67857e-07
0.025 	2.36345e-07
0.035 	2.04832e-07
0.045 	1.87763e-07
